 Gaussian 16, Revision C.01,
 Gaussian 16:  ES64L-G16RevC.01  3-Jul-2019

 -------------------------
 # opt B3LYP/6-31G(d) freq
 -------------------------

 -------------------
 Title Card Required
 -------------------
 Symbolic Z-matrix:
 Charge =  0 Multiplicity = 1

 SCF Done:  E(RB3LYP) =  -270.483978553     A.U. after   14 cycles
 SCF Done:  E(RB3LYP) =  -270.501493065     A.U. after   16 cycles
 SCF Done:  E(RB3LYP) =  -270.515564559     A.U. after   15 cycles
 SCF Done:  E(RB3LYP) =  -270.524157209     A.U. after   13 cycles
 SCF Done:  E(RB3LYP) =  -270.530440205     A.U. after   13 cycles
 SCF Done:  E(RB3LYP) =  -270.531540340     A.U. after   13 cycles
 SCF Done:  E(RB3LYP) =  -270.532019307     A.U. after   12 cycles
 SCF Done:  E(RB3LYP) =  -270.532440114     A.U. after   12 cycles
 SCF Done:  E(RB3LYP) =  -270.532990762     A.U. after   14 cycles
 SCF Done:  E(RB3LYP) =  -270.533223979     A.U. after   13 cycles
 SCF Done:  E(RB3LYP) =  -270.533311454     A.U. after   12 cycles
 SCF Done:  E(RB3LYP) =  -270.533358494     A.U. after   12 cycles
 SCF Done:  E(RB3LYP) =  -270.533410778     A.U. after   12 cycles
 SCF Done:  E(RB3LYP) =  -270.533430047     A.U. after   11 cycles
 SCF Done:  E(RB3LYP) =  -270.533431180     A.U. after    9 cycles
 Optimization completed.
    -- Stationary point found.
 Normal termination of Gaussian 16 at Sun Mar 12 13:41:45 2023.

 --------------------------------------------------------------------
 #N Geom=AllCheck Guess=TCheck SCRF=Check GenChk RB3LYP/6-31G(d) Freq
 --------------------------------------------------------------------

 Structure from the checkpoint file:  "/home/rpaton/Gau-110414.chk"
 -------------------
 Title Card Required
 -------------------
 Charge =  0 Multiplicity = 1

                         Standard orientation:
 ---------------------------------------------------------------------
 Center     Atomic      Atomic             Coordinates (Angstroms)
 Number     Number       Type             X           Y           Z
 ---------------------------------------------------------------------
      1          6           0       -0.813045    0.985709   -0.141984
      2          6           0       -1.470469   -0.271515    0.388286
      3          8           0       -2.227942   -0.974462   -0.241534
      4          6           0        2.243119   -0.922949    0.165415
      5          6           0        1.500232   -0.014869   -0.468102
      6          6           0        0.690357    1.062766    0.203353
      7          1           0       -1.329622    1.842055    0.318804
      8          1           0       -0.987165    1.038112   -1.222069
      9          1           0       -1.217829   -0.514626    1.447153
     10          1           0        2.803833   -1.680872   -0.374608
     11          1           0        2.322125   -0.942250    1.250789
     12          1           0        1.448054   -0.036824   -1.557956
     13          1           0        1.059007    2.051452   -0.103373
     14          1           0        0.823975    1.003794    1.291730
 ---------------------------------------------------------------------

 SCF Done:  E(RB3LYP) =  -270.533431180     A.U. after    1 cycles

 The electronic state is 1-A.
 Alpha  occ. eigenvalues --  -19.14798 -10.27667 -10.20505 -10.20175 -10.19679
 Alpha  occ. eigenvalues --  -10.18583  -1.04362  -0.81649  -0.75171  -0.66288
 Alpha  occ. eigenvalues --   -0.57861  -0.56420  -0.48118  -0.46538  -0.44844
 Alpha  occ. eigenvalues --   -0.43895  -0.41407  -0.39167  -0.37054  -0.36089
 Alpha  occ. eigenvalues --   -0.34333  -0.26585  -0.24839
 Alpha virt. eigenvalues --   -0.02132   0.01315   0.10060   0.10658   0.12645
 Alpha virt. eigenvalues --    0.14678   0.15480   0.16770   0.16813   0.18654
 Alpha virt. eigenvalues --    0.22151   0.26829   0.27325   0.31311   0.36741

 Mulliken charges:
               1
     1  C   -0.339239
     2  C    0.271124
     3  O   -0.383591
     4  C   -0.336928
     5  C   -0.040855
     6  C   -0.320764
     7  H    0.164024
     8  H    0.167405
     9  H    0.097504
    10  H    0.146125
    11  H    0.137871
    12  H    0.133465
    13  H    0.157724
    14  H    0.146138
 Sum of Mulliken charges =  -0.00000

 Dipole moment (field-independent basis, Debye):
    X=              1.7061    Y=              1.9506    Z=              0.8635  Tot=              2.7315
 Quadrupole moment (field-independent basis, Debye-Ang):
   XX=            -42.4845   YY=            -37.0015   ZZ=            -34.6981
   XY=             -5.0756   XZ=             -1.9703   YZ=             -0.6210

  Exact polarizability:      54.900      -7.239      54.099       5.253      -2.059      50.726
 Approx polarizability:      71.607      -8.482      79.464      13.145      -3.152      76.354

                      1                      2                      3
                      A                      A                      A
 Frequencies --     60.8822                92.7701               113.8850
 Red. masses --      5.4230                 2.4075                 1.9375
 Frc consts  --      0.0118                 0.0122                 0.0148
 IR Inten    --      3.8960                 2.1564                 2.1262

                      4                      5                      6
                      A                      A                      A
 Frequencies --    266.3525               353.3833               428.1260
 Red. masses --      2.2184                 1.8913                 2.1180
 Frc consts  --      0.0927                 0.1392                 0.2287
 IR Inten    --      1.7320                 3.3935                 1.6760

                      7                      8                      9
                      A                      A                      A
 Frequencies --    503.2930               660.2664               753.7135
 Red. masses --      2.8060                 1.5604                 1.6165
 Frc consts  --      0.4188                 0.4008                 0.5410
 IR Inten    --      4.5038                13.4175                 1.9943

                     10                     11                     12
                      A                      A                      A
 Frequencies --    872.4010               902.0394               947.4071
 Red. masses --      1.6667                 1.8350                 1.3553
 Frc consts  --      0.7474                 0.8797                 0.7167
 IR Inten    --      8.5581                 1.8921                36.6989

                     13                     14                     15
                      A                      A                      A
 Frequencies --   1006.5031              1030.7610              1036.0698
 Red. masses --      1.3804                 2.1783                 1.2095
 Frc consts  --      0.8239                 1.3636                 0.7649
 IR Inten    --      4.4744                 8.2251                 4.4460

                     16                     17                     18
                      A                      A                      A
 Frequencies --   1066.9290              1169.1881              1239.6166
 Red. masses --      2.1086                 2.0115                 1.3234
 Frc consts  --      1.4142                 1.6201                 1.1982
 IR Inten    --     14.5346                 7.7164                 6.5043

                     19                     20                     21
                      A                      A                      A
 Frequencies --   1247.0248              1335.5104              1359.3294
 Red. masses --      1.3497                 1.2325                 1.3702
 Frc consts  --      1.2366                 1.2952                 1.4917
 IR Inten    --      0.3987                 1.6860                 0.1974

                     22                     23                     24
                      A                      A                      A
 Frequencies --   1371.5449              1441.0856              1476.0730
 Red. masses --      1.3580                 1.2082                 1.1799
 Frc consts  --      1.5051                 1.4784                 1.5146
 IR Inten    --      3.2696                 4.0703                 4.1611

                     25                     26                     27
                      A                      A                      A
 Frequencies --   1487.6014              1512.4450              1733.2856
 Red. masses --      1.0914                 1.1106                 4.4641
 Frc consts  --      1.4230                 1.4968                 7.9018
 IR Inten    --      5.4032                 5.2191                 5.5115

                     28                     29                     30
                      A                      A                      A
 Frequencies --   1838.6891              2884.5025              3023.0783
 Red. masses --      9.9566                 1.0831                 1.0658
 Frc consts  --     19.8326                 5.3098                 5.7389
 IR Inten    --    162.4758               108.0799                15.1754

                     31                     32                     33
                      A                      A                      A
 Frequencies --   3035.8158              3070.5385              3108.5960
 Red. masses --      1.0618                 1.1023                 1.0951
 Frc consts  --      5.7658                 6.1230                 6.2352
 IR Inten    --     30.8841                15.0192                16.9532

                     34                     35                     36
                      A                      A                      A
 Frequencies --   3143.2924              3157.8791              3237.8430
 Red. masses --      1.0822                 1.0682                 1.1154
 Frc consts  --      6.2999                 6.2762                 6.8894
 IR Inten    --     23.2107                 4.4350                17.8074

 - Thermochemistry -
 -------------------
 Temperature   298.150 Kelvin.  Pressure   1.00000 Atm.
 Atom     1 has atomic number  6 and mass  12.00000

 Molecular mass:    84.05751 amu.
 Principal axes and moments of inertia in atomic units:
                           1         2         3
     Eigenvalues --   289.00140 870.968661045.78692
           X            0.99918  -0.04043  -0.00121
           Y            0.04041   0.99906  -0.01592
           Z            0.00185   0.01586   0.99987
 This molecule is an asymmetric top.
 Rotational symmetry number  1.
 Rotational temperatures (Kelvin)      0.29970     0.09945     0.08282
 Rotational constants (GHZ):           6.24475     2.07211     1.72573
 Zero-point vibrational energy     310836.0 (Joules/Mol)
                                   74.29159 (Kcal/Mol)
 Warning -- explicit consideration of   7 degrees of freedom as
           vibrations may cause significant error
 Vibrational temperatures:     87.60   133.48   163.86   383.22   508.44
          (Kelvin)            615.98   724.13   949.98  1084.43  1255.19
                             1297.83  1363.11  1448.13  1483.04  1490.67
                             1535.07  1682.20  1783.53  1794.19  1921.50
                             1955.77  1973.35  2073.40  2123.74  2140.33
                             2176.07  2493.81  2645.46  4150.16  4349.54
                             4367.86  4417.82  4472.58  4522.50  4543.48
                             4658.53

 Zero-point correction=                           0.118391 (Hartree/Particle)
 Thermal correction to Energy=                    0.125428
 Thermal correction to Enthalpy=                  0.126372
 Thermal correction to Gibbs Free Energy=         0.086763
 Sum of electronic and zero-point Energies=           -270.415040
 Sum of electronic and thermal Energies=              -270.408003
 Sum of electronic and thermal Enthalpies=            -270.407059
 Sum of electronic and thermal Free Energies=         -270.446669

                     E (Thermal)             CV                S
                      KCal/Mol        Cal/Mol-Kelvin    Cal/Mol-Kelvin
 Total                   78.707             23.588             83.365
 Electronic               0.000              0.000              0.000
 Translational            0.889              2.981             39.200
 Rotational               0.889              2.981             27.067
 Vibrational             76.930             17.626             17.097
 Vibration     1          0.597              1.973              4.428
 Vibration     2          0.602              1.954              3.601
 Vibration     3          0.607              1.938              3.202
 Vibration     4          0.672              1.735              1.620
 Vibration     5          0.730              1.568              1.151
 Vibration     6          0.790              1.409              0.865
 Vibration     7          0.859              1.243              0.650

 Optimization completed.
    -- Stationary point found.
 Normal termination of Gaussian 16 at Sun Mar 12 13:43:01 2023.
