 Gaussian 09, Revision D.01,
 Gaussian 09:  ES64L-G09RevD.01 24-Apr-2013

 ---------------------
 # B3LYP/6-31G(d) freq
 ---------------------

 --------------------
 transition structure
 --------------------
 Symbolic Z-matrix:
 Charge =  0 Multiplicity = 1

                         Standard orientation:
 ---------------------------------------------------------------------
 Center     Atomic      Atomic             Coordinates (Angstroms)
 Number     Number       Type             X           Y           Z
 ---------------------------------------------------------------------
      1          6           0       -1.466309    0.784167   -0.289984
      2          6           0       -1.291057   -0.472056    0.261839
      3          8           0       -0.511026   -1.358456   -0.252221
      4          6           0        1.285570   -0.900284    0.182034
      5          6           0        1.374702    0.412704   -0.301796
      6          6           0        0.668678    1.425295    0.322236
      7          1           0       -2.145897    1.492397    0.178794
      8          1           0       -1.225400    0.953689   -1.332994
      9          1           0       -1.676663   -0.646152    1.281812
     10          1           0        1.766395   -1.711905   -0.353320
     11          1           0        1.173540   -1.069495    1.248816
     12          1           0        1.692496    0.557034   -1.332675
     13          1           0        0.629026    2.424945   -0.101698
     14          1           0        0.445204    1.368175    1.383056
 ---------------------------------------------------------------------

 SCF Done:  E(RB3LYP) =  -270.461127953     A.U. after   14 cycles

 The electronic state is 1-A.
 Alpha  occ. eigenvalues --  -19.13400 -10.22917 -10.22252 -10.21110 -10.18645
 Alpha  occ. eigenvalues --  -10.18425  -1.00187  -0.79743  -0.73272  -0.67405
 Alpha  occ. eigenvalues --   -0.56854  -0.55476  -0.48640  -0.46006  -0.44252
 Alpha  occ. eigenvalues --   -0.43137  -0.39563  -0.38592  -0.37046  -0.36558
 Alpha  occ. eigenvalues --   -0.27175  -0.25233  -0.22261
 Alpha virt. eigenvalues --   -0.02719   0.01061   0.09107   0.10847   0.11810
 Alpha virt. eigenvalues --    0.13458   0.14677   0.16843   0.18231   0.18857
 Alpha virt. eigenvalues --    0.20706   0.30027   0.30452   0.33869   0.35125

 Mulliken charges:
               1
     1  C   -0.346682
     2  C    0.199483
     3  O   -0.457448
     4  C   -0.208495
     5  C   -0.049471
     6  C   -0.323544
     7  H    0.140182
     8  H    0.161982
     9  H    0.091865
    10  H    0.170923
    11  H    0.165237
    12  H    0.132631
    13  H    0.161403
    14  H    0.161934
 Sum of Mulliken charges =   0.00000

 Dipole moment (field-independent basis, Debye):
    X=              0.7197    Y=              1.8014    Z=              0.8009  Tot=              2.0987
 Quadrupole moment (field-independent basis, Debye-Ang):
   XX=            -36.6359   YY=            -37.0218   ZZ=            -34.7719
   XY=             -3.1070   XZ=             -1.5681   YZ=             -1.4287

  Exact polarizability:  71.046  -5.602  65.284  -4.077  -2.513  47.560
 Approx polarizability: 120.555  -8.604 117.544  -5.438  -0.911  70.024

 ******    1 imaginary frequencies (negative Signs) ******

                      1                      2                      3
                      A                      A                      A
 Frequencies --   -482.7269               170.6655               269.5624
 Red. masses --      8.9428                 2.9076                 6.5663
 Frc consts  --      1.2278                 0.0499                 0.2811
 IR Inten    --     18.5513                 3.0551                19.9600

                      4                      5                      6
                      A                      A                      A
 Frequencies --    310.7237               379.8006               427.6113
 Red. masses --      3.2400                 2.2235                 2.2740
 Frc consts  --      0.1843                 0.1890                 0.2450
 IR Inten    --      2.2698                 1.1111                 6.4845

                      7                      8                      9
                      A                      A                      A
 Frequencies --    465.3777               530.5500               736.3262
 Red. masses --      1.9501                 2.3181                 1.3822
 Frc consts  --      0.2488                 0.3845                 0.4415
 IR Inten    --      0.4189                12.8795                25.6022

                     10                     11                     12
                      A                      A                      A
 Frequencies --    808.2321               874.8347               896.9917
 Red. masses --      1.2286                 1.1485                 1.2489
 Frc consts  --      0.4729                 0.5179                 0.5920
 IR Inten    --      4.2738                37.4550                 5.3630

                     13                     14                     15
                      A                      A                      A
 Frequencies --    962.0246               995.3749              1001.4186
 Red. masses --      1.0717                 1.4082                 1.4410
 Frc consts  --      0.5844                 0.8220                 0.8514
 IR Inten    --      0.3446                21.2280                 5.2897

                     16                     17                     18
                      A                      A                      A
 Frequencies --   1010.8743              1037.7694              1057.3799
 Red. masses --      1.3039                 1.3618                 1.5434
 Frc consts  --      0.7850                 0.8641                 1.0167
 IR Inten    --     11.4526                 1.5865                 1.7966

                     19                     20                     21
                      A                      A                      A
 Frequencies --   1091.4693              1267.6064              1277.1614
 Red. masses --      1.2106                 1.5958                 2.1995
 Frc consts  --      0.8497                 1.5107                 2.1138
 IR Inten    --      1.8571                10.3745                13.4993

                     22                     23                     24
                      A                      A                      A
 Frequencies --   1302.0661              1359.7438              1450.1996
 Red. masses --      1.8111                 1.5970                 1.3261
 Frc consts  --      1.8091                 1.7397                 1.6432
 IR Inten    --      0.1308                13.0368                 9.9825

                     25                     26                     27
                      A                      A                      A
 Frequencies --   1490.4557              1551.5795              1565.4855
 Red. masses --      1.4079                 1.3748                 1.6972
 Frc consts  --      1.8428                 1.9501                 2.4507
 IR Inten    --      9.4103                 8.0476                 9.7842

                     28                     29                     30
                      A                      A                      A
 Frequencies --   1638.9061              2992.2704              3167.6010
 Red. masses --      3.4304                 1.0848                 1.0606
 Frc consts  --      5.4288                 5.7225                 6.2700
 IR Inten    --     39.8716                98.5970                 6.2110

                     31                     32                     33
                      A                      A                      A
 Frequencies --   3169.6779              3173.9322              3177.2376
 Red. masses --      1.0692                 1.0657                 1.0708
 Frc consts  --      6.3290                 6.3253                 6.3691
 IR Inten    --     17.3446                13.5316                 3.9360

                     34                     35                     36
                      A                      A                      A
 Frequencies --   3252.4652              3262.0676              3265.0681
 Red. masses --      1.1166                 1.1163                 1.1147
 Frc consts  --      6.9592                 6.9984                 7.0015
 IR Inten    --      6.9128                10.5046                 7.6546

 - Thermochemistry -
 -------------------
 Temperature   298.150 Kelvin.  Pressure   1.00000 Atm.
 Atom     1 has atomic number  6 and mass  12.00000

 Molecular mass:    84.05751 amu.
 Principal axes and moments of inertia in atomic units:
                           1         2         3
     Eigenvalues --   375.07757 464.67108 736.76704
           X            0.98340  -0.18070  -0.01644
           Y            0.18036   0.98340  -0.01993
           Z            0.01977   0.01663   0.99967
 This molecule is an asymmetric top.
 Rotational symmetry number  1.
 Rotational temperatures (Kelvin)      0.23092     0.18640     0.11756
 Rotational constants (GHZ):           4.81165     3.88391     2.44954
    1 imaginary frequencies ignored.
 Zero-point vibrational energy     307383.5 (Joules/Mol)
                                   73.46642 (Kcal/Mol)
 Warning -- explicit consideration of   7 degrees of freedom as
           vibrations may cause significant error
 Vibrational temperatures:    245.55   387.84   447.06   546.45   615.24
          (Kelvin)            669.57   763.34  1059.41  1162.86  1258.69
                             1290.57  1384.14  1432.12  1440.82  1454.42
                             1493.12  1521.33  1570.38  1823.80  1837.55
                             1873.38  1956.37  2086.51  2144.43  2232.37
                             2252.38  2358.02  4305.20  4557.47  4560.45
                             4566.57  4571.33  4679.57  4693.38  4697.70

 Zero-point correction=                           0.117076 (Hartree/Particle)
 Thermal correction to Energy=                    0.123045
 Thermal correction to Enthalpy=                  0.123989
 Thermal correction to Gibbs Free Energy=         0.088015
 Sum of electronic and zero-point Energies=           -270.344052
 Sum of electronic and thermal Energies=              -270.338083
 Sum of electronic and thermal Enthalpies=            -270.337139
 Sum of electronic and thermal Free Energies=         -270.373113

                     E (Thermal)             CV                S
                      KCal/Mol        Cal/Mol-Kelvin    Cal/Mol-Kelvin
 Total                   77.212             22.509             75.713
 Electronic               0.000              0.000              0.000
 Translational            0.889              2.981             39.200
 Rotational               0.889              2.981             26.354
 Vibrational             75.434             16.547             10.158
 Vibration     1          0.626              1.879              2.428
 Vibration     2          0.674              1.729              1.599
 Vibration     3          0.700              1.653              1.358
 Vibration     4          0.750              1.513              1.040
 Vibration     5          0.789              1.410              0.866
 Vibration     6          0.823              1.327              0.751
 Vibration     7          0.886              1.182              0.586

 Optimization completed.
    -- Stationary point found.
 Normal termination of Gaussian 09 at Fri Mar 18 03:15:56 2016.
