 Gaussian 16, Revision C.01,
 Gaussian 16:  AS64L-G16RevC.01  3-Jul-2019

 ----------------------------------------------
 # opt(ts,calcfc,noeigentest) b3lyp/6-31G* freq
 ----------------------------------------------

 -------------------------------
 DATS_optcreated by GaussianPrep
 -------------------------------
 Symbolic Z-matrix:
 Charge =  0 Multiplicity = 1

 SCF Done:  E(RB3LYP) =  -574.579658883     A.U. after   15 cycles
 SCF Done:  E(RB3LYP) =  -574.577841809     A.U. after   13 cycles
 SCF Done:  E(RB3LYP) =  -574.576073780     A.U. after   13 cycles
 SCF Done:  E(RB3LYP) =  -574.575895060     A.U. after   13 cycles
 SCF Done:  E(RB3LYP) =  -574.575922545     A.U. after   12 cycles
 SCF Done:  E(RB3LYP) =  -574.575924198     A.U. after   10 cycles
 SCF Done:  E(RB3LYP) =  -574.575924464     A.U. after    9 cycles
 SCF Done:  E(RB3LYP) =  -574.575924501     A.U. after    7 cycles
 Optimization completed.
    -- Stationary point found.
 Normal termination of Gaussian 16 at Mon Mar 13 09:33:06 2023.

 --------------------------------------------------------------------
 #N Geom=AllCheck Guess=TCheck SCRF=Check GenChk RB3LYP/6-31G(d) Freq
 --------------------------------------------------------------------

 Structure from the checkpoint file:  "DATS_opt.chk"
 -------------------------------
 DATS_optcreated by GaussianPrep
 -------------------------------
 Charge =  0 Multiplicity = 1

                         Standard orientation:
 ---------------------------------------------------------------------
 Center     Atomic      Atomic             Coordinates (Angstroms)
 Number     Number       Type             X           Y           Z
 ---------------------------------------------------------------------
      1          6           0        1.294535   -0.341317    1.028853
      2          6           0        0.375238    0.661106    1.327856
      3          1           0        1.867815   -0.928580    1.733108
      4          1           0        0.147212    1.046490    2.313005
      5          6           0        1.807617   -0.092173   -0.331581
      6          8           0        2.673638   -0.631664   -0.964567
      7          6           0        0.303002    1.557952    0.145347
      8          8           0       -0.297166    2.587279   -0.018358
      9          8           0        1.077775    0.988527   -0.860981
     10          6           0       -1.731400   -0.652947   -0.126480
     11          6           0       -0.842858   -1.699241   -0.464502
     12          1           0       -0.734736   -1.941866   -1.519976
     13          6           0        0.070605   -2.234478    0.422268
     14          1           0       -0.128375   -2.269780    1.487307
     15          6           0       -1.697938   -0.121095    1.159818
     16          1           0       -1.456529   -0.747604    2.011181
     17          1           0       -2.287619    0.762135    1.391647
     18          1           0        0.831567   -2.923770    0.068773
     19          6           0       -2.523788    0.047003   -1.207947
     20          1           0       -2.327963    1.125689   -1.198608
     21          1           0       -2.273920   -0.334755   -2.202133
     22          1           0       -3.601500   -0.089948   -1.054840
 ---------------------------------------------------------------------

 SCF Done:  E(RB3LYP) =  -574.575924501     A.U. after    1 cycles

 The electronic state is 1-A.
 Alpha  occ. eigenvalues --  -19.20418 -19.14965 -19.14681 -10.32854 -10.32563
 Alpha  occ. eigenvalues --  -10.23230 -10.22615 -10.22464 -10.22453 -10.22247
 Alpha  occ. eigenvalues --  -10.21222 -10.19439  -1.12417  -1.05945  -1.02121
 Alpha  occ. eigenvalues --   -0.85346  -0.81858  -0.76238  -0.71030  -0.68369
 Alpha  occ. eigenvalues --   -0.64098  -0.61701  -0.57545  -0.54301  -0.50369
 Alpha  occ. eigenvalues --   -0.49552  -0.48613  -0.47232  -0.46100  -0.44146
 Alpha  occ. eigenvalues --   -0.43467  -0.42736  -0.42568  -0.40165  -0.39675
 Alpha  occ. eigenvalues --   -0.38992  -0.37771  -0.37574  -0.35763  -0.31856
 Alpha  occ. eigenvalues --   -0.29959  -0.27640  -0.26657  -0.25142
 Alpha virt. eigenvalues --   -0.07126  -0.05459   0.02155   0.04948   0.07440
 Alpha virt. eigenvalues --    0.09294   0.10479   0.11256   0.11958   0.13975
 Alpha virt. eigenvalues --    0.14390   0.16129   0.16951   0.18061   0.19980

 Mulliken charges:
               1
     1  C   -0.220831
     2  C   -0.225525
     3  H    0.176260
     4  H    0.183161
     5  C    0.627198
     6  O   -0.454476
     7  C    0.640932
     8  O   -0.464772
     9  O   -0.468779
    10  C    0.198564
    11  C   -0.122167
    12  H    0.154022
    13  C   -0.335095
    14  H    0.167574
    15  C   -0.384886
    16  H    0.169727
    17  H    0.179569
    18  H    0.183239
    19  C   -0.530802
    20  H    0.195443
    21  H    0.164297
    22  H    0.167345
 Sum of Mulliken charges =  -0.00000

 Dipole moment (field-independent basis, Debye):
    X=             -2.6845    Y=             -2.8711    Z=              3.4281  Tot=              5.2155
 Quadrupole moment (field-independent basis, Debye-Ang):
   XX=            -73.3875   YY=            -75.1842   ZZ=            -65.2397
   XY=              1.2131   XZ=              6.2110   YZ=              0.8940

  Exact polarizability:     118.890     -10.961     106.412       2.022       5.751      88.972
 Approx polarizability:     211.915     -28.698     192.791       0.238      20.644     148.574

 ******    1 imaginary frequencies (negative Signs) ******

                      1                      2                      3
                      A                      A                      A
 Frequencies --   -444.6233                55.7832                85.0573
 Red. masses --      8.0737                 4.6523                 1.1026
 Frc consts  --      0.9404                 0.0085                 0.0047
 IR Inten    --      3.7074                 1.5915                 0.9536

                      4                      5                      6
                      A                      A                      A
 Frequencies --    104.4733               131.0088               161.8582
 Red. masses --      4.2656                 4.8172                 6.1665
 Frc consts  --      0.0274                 0.0487                 0.0952
 IR Inten    --      2.4910                 0.8780                 1.5212

                      7                      8                      9
                      A                      A                      A
 Frequencies --    173.7613               202.8048               328.8671
 Red. masses --     15.3032                 4.1369                 2.5829
 Frc consts  --      0.2722                 0.1002                 0.1646
 IR Inten    --      3.2801                 0.4010                 2.2710

                     10                     11                     12
                      A                      A                      A
 Frequencies --    361.8217               400.5101               417.1492
 Red. masses --      2.8837                11.3048                 5.6098
 Frc consts  --      0.2224                 1.0684                 0.5751
 IR Inten    --      1.5789                 8.3169                 5.4656

                     13                     14                     15
                      A                      A                      A
 Frequencies --    427.9918               535.3675               552.6685
 Red. masses --      2.3891                 2.5908                 2.2209
 Frc consts  --      0.2578                 0.4375                 0.3997
 IR Inten    --      0.4461                 0.7931                10.2015

                     16                     17                     18
                      A                      A                      A
 Frequencies --    589.9022               621.9782               715.3591
 Red. masses --      4.5852                10.2724                 7.4585
 Frc consts  --      0.9401                 2.3414                 2.2488
 IR Inten    --      4.4797                 2.6550                25.4735

                     19                     20                     21
                      A                      A                      A
 Frequencies --    729.9443               744.2503               763.1420
 Red. masses --      5.1441                 2.3896                 2.3925
 Frc consts  --      1.6149                 0.7798                 0.8209
 IR Inten    --     11.6592                 2.5769                 1.0726

                     22                     23                     24
                      A                      A                      A
 Frequencies --    782.2068               823.9733               845.6091
 Red. masses --      1.4298                 1.3614                 1.7676
 Frc consts  --      0.5154                 0.5446                 0.7447
 IR Inten    --      1.2035                 0.0900                 2.0683

                     25                     26                     27
                      A                      A                      A
 Frequencies --    885.6009               906.3031               923.0091
 Red. masses --      3.7731                 4.2339                 1.4901
 Frc consts  --      1.7435                 2.0490                 0.7479
 IR Inten    --     26.5815               103.9820                14.7203

                     28                     29                     30
                      A                      A                      A
 Frequencies --    976.4098               987.0130              1010.6601
 Red. masses --      1.3003                 1.2896                 1.2544
 Frc consts  --      0.7304                 0.7402                 0.7549
 IR Inten    --     25.4625                 9.6516                 5.2489

                     31                     32                     33
                      A                      A                      A
 Frequencies --   1017.2199              1048.3279              1070.5399
 Red. masses --      1.2360                 1.4141                 1.2837
 Frc consts  --      0.7535                 0.9156                 0.8668
 IR Inten    --      3.6272                 1.9791                11.2110

                     34                     35                     36
                      A                      A                      A
 Frequencies --   1076.4512              1081.7684              1120.0645
 Red. masses --      1.6724                 1.9019                 1.5947
 Frc consts  --      1.1418                 1.3113                 1.1788
 IR Inten    --     11.0154                31.5600                 0.8507

                     37                     38                     39
                      A                      A                      A
 Frequencies --   1264.7011              1295.5254              1303.8445
 Red. masses --      8.1341                 2.7881                 1.4049
 Frc consts  --      7.6655                 2.7571                 1.4072
 IR Inten    --    220.8048                 3.1565                 3.0119

                     40                     41                     42
                      A                      A                      A
 Frequencies --   1341.1786              1415.5556              1445.9398
 Red. masses --      1.8239                 2.1160                 1.3233
 Frc consts  --      1.9330                 2.4982                 1.6301
 IR Inten    --      0.4955                 7.7216                 3.9036

                     43                     44                     45
                      A                      A                      A
 Frequencies --   1459.3912              1505.2209              1513.9307
 Red. masses --      1.9422                 1.4748                 1.0445
 Frc consts  --      2.4372                 1.9688                 1.4104
 IR Inten    --      7.1347                11.8936                 7.9207

                     46                     47                     48
                      A                      A                      A
 Frequencies --   1531.6146              1585.3196              1613.5766
 Red. masses --      1.2226                 1.9294                 2.6670
 Frc consts  --      1.6898                 2.8569                 4.0913
 IR Inten    --     12.1940                 5.0940                 9.8829

                     49                     50                     51
                      A                      A                      A
 Frequencies --   1852.0856              1912.1850              3048.1360
 Red. masses --     12.6915                12.5078                 1.0379
 Frc consts  --     25.6499                26.9458                 5.6815
 IR Inten    --    555.3915               236.8601                15.8010

                     52                     53                     54
                      A                      A                      A
 Frequencies --   3105.4446              3135.6211              3170.0818
 Red. masses --      1.0998                 1.1019                 1.0576
 Frc consts  --      6.2491                 6.3833                 6.2620
 IR Inten    --      8.6483                10.3533                 4.9402

                     55                     56                     57
                      A                      A                      A
 Frequencies --   3175.9796              3182.0762              3248.6504
 Red. masses --      1.0789                 1.0670                 1.0961
 Frc consts  --      6.4119                 6.3658                 6.8154
 IR Inten    --      7.9794                 2.6261                 1.5319

                     58                     59                     60
                      A                      A                      A
 Frequencies --   3252.1699              3261.9407              3267.4638
 Red. masses --      1.1103                 1.1148                 1.1000
 Frc consts  --      6.9192                 6.9887                 6.9192
 IR Inten    --      2.2404                 2.8629                 0.4387

 - Thermochemistry -
 -------------------
 Temperature   298.150 Kelvin.  Pressure   1.00000 Atm.
 Atom     1 has atomic number  6 and mass  12.00000

 Molecular mass:   166.06299 amu.
 Principal axes and moments of inertia in atomic units:
                           1         2         3
     Eigenvalues --  1476.146311838.070842408.66951
           X            0.99850  -0.03971   0.03756
           Y            0.03998   0.99918  -0.00647
           Z           -0.03728   0.00796   0.99927
 This molecule is an asymmetric top.
 Rotational symmetry number  1.
 Warning -- assumption of classical behavior for rotation
           may cause significant error
 Rotational temperatures (Kelvin)      0.05868     0.04712     0.03596
 Rotational constants (GHZ):           1.22260     0.98187     0.74927
    1 imaginary frequencies ignored.
 Zero-point vibrational energy     451868.4 (Joules/Mol)
                                  107.99913 (Kcal/Mol)
 Warning -- explicit consideration of  15 degrees of freedom as
           vibrations may cause significant error
 Vibrational temperatures:     80.26   122.38   150.31   188.49   232.88
          (Kelvin)            250.00   291.79   473.17   520.58   576.24
                              600.18   615.78   770.27   795.17   848.74
                              894.89  1029.24  1050.23  1070.81  1097.99
                             1125.42  1185.51  1216.64  1274.18  1303.97
                             1328.00  1404.84  1420.09  1454.11  1463.55
                             1508.31  1540.27  1548.77  1556.42  1611.52
                             1819.62  1863.97  1875.94  1929.66  2036.67
                             2080.38  2099.74  2165.68  2178.21  2203.65
                             2280.92  2321.58  2664.74  2751.21  4385.59
                             4468.04  4511.46  4561.04  4569.53  4578.30
                             4674.08  4679.15  4693.21  4701.15

 Zero-point correction=                           0.172108 (Hartree/Particle)
 Thermal correction to Energy=                    0.183177
 Thermal correction to Enthalpy=                  0.184121
 Thermal correction to Gibbs Free Energy=         0.135053
 Sum of electronic and zero-point Energies=           -574.403817
 Sum of electronic and thermal Energies=              -574.392748
 Sum of electronic and thermal Enthalpies=            -574.391804
 Sum of electronic and thermal Free Energies=         -574.440872

                     E (Thermal)             CV                S
                      KCal/Mol        Cal/Mol-Kelvin    Cal/Mol-Kelvin
 Total                  114.945             41.812            103.273
 Electronic               0.000              0.000              0.000
 Translational            0.889              2.981             41.230
 Rotational               0.889              2.981             30.259
 Vibrational            113.168             35.850             31.785
 Vibration     1          0.596              1.975              4.601
 Vibration     2          0.601              1.960              3.771
 Vibration     3          0.605              1.946              3.369
 Vibration     4          0.612              1.922              2.931
 Vibration     5          0.622              1.889              2.528
 Vibration     6          0.627              1.875              2.394
 Vibration     7          0.639              1.836              2.108
 Vibration     8          0.712              1.618              1.266
 Vibration     9          0.736              1.551              1.114
 Vibration    10          0.766              1.469              0.961
 Vibration    11          0.780              1.433              0.902
 Vibration    12          0.789              1.409              0.865
 Vibration    13          0.890              1.172              0.575
 Vibration    14          0.908              1.134              0.539
 Vibration    15          0.947              1.053              0.467

 Optimization completed.
    -- Stationary point found.
 Normal termination of Gaussian 16 at Mon Mar 13 09:33:41 2023.
