 Gaussian 16, Revision C.01,
 Gaussian 16:  AS64L-G16RevC.01  3-Jul-2019

 -----------------------
 # opt b3lyp/6-31G* freq
 -----------------------

 -------------------
 Title Card Required
 -------------------
 Symbolic Z-matrix:
 Charge =  0 Multiplicity = 1

 SCF Done:  E(RB3LYP) =  -574.580575446     A.U. after   15 cycles
 SCF Done:  E(RB3LYP) =  -574.587068620     A.U. after   13 cycles
 SCF Done:  E(RB3LYP) =  -574.585736929     A.U. after   14 cycles
 SCF Done:  E(RB3LYP) =  -574.592002038     A.U. after   13 cycles
 SCF Done:  E(RB3LYP) =  -574.592564321     A.U. after   14 cycles
 SCF Done:  E(RB3LYP) =  -574.593903136     A.U. after   13 cycles
 SCF Done:  E(RB3LYP) =  -574.594314298     A.U. after   12 cycles
 SCF Done:  E(RB3LYP) =  -574.594879797     A.U. after   13 cycles
 SCF Done:  E(RB3LYP) =  -574.596090538     A.U. after   12 cycles
 SCF Done:  E(RB3LYP) =  -574.597773106     A.U. after   14 cycles
 SCF Done:  E(RB3LYP) =  -574.598357899     A.U. after   10 cycles
 SCF Done:  E(RB3LYP) =  -574.598361153     A.U. after   10 cycles
 SCF Done:  E(RB3LYP) =  -574.598362365     A.U. after    8 cycles
 SCF Done:  E(RB3LYP) =  -574.598366547     A.U. after    9 cycles
 SCF Done:  E(RB3LYP) =  -574.598373941     A.U. after   10 cycles
 SCF Done:  E(RB3LYP) =  -574.598377549     A.U. after   10 cycles
 SCF Done:  E(RB3LYP) =  -574.598380091     A.U. after   10 cycles
 SCF Done:  E(RB3LYP) =  -574.598380883     A.U. after    8 cycles
 SCF Done:  E(RB3LYP) =  -574.598381063     A.U. after    8 cycles
 Optimization completed.
    -- Stationary point found.
 Normal termination of Gaussian 16 at Mon Mar 13 09:37:48 2023.

 --------------------------------------------------------------------
 #N Geom=AllCheck Guess=TCheck SCRF=Check GenChk RB3LYP/6-31G(d) Freq
 --------------------------------------------------------------------

 Structure from the checkpoint file:  "DATS_rct.chk"
 -------------------
 Title Card Required
 -------------------
 Charge =  0 Multiplicity = 1

                         Standard orientation:
 ---------------------------------------------------------------------
 Center     Atomic      Atomic             Coordinates (Angstroms)
 Number     Number       Type             X           Y           Z
 ---------------------------------------------------------------------
      1          6           0        1.740199   -0.740268    1.052078
      2          6           0        1.436552    0.517123    1.387204
      3          1           0        1.963411   -1.590675    1.682671
      4          1           0        1.345353    0.970799    2.365190
      5          6           0        1.738387   -0.839290   -0.434085
      6          8           0        1.975039   -1.774511   -1.143905
      7          6           0        1.230002    1.295645    0.134374
      8          8           0        0.970969    2.455613   -0.018383
      9          8           0        1.414187    0.421695   -0.936983
     10          6           0       -2.083993    0.196957   -0.076996
     11          6           0       -1.984633   -1.270225   -0.228147
     12          1           0       -2.272042   -1.656204   -1.206781
     13          6           0       -1.548502   -2.143796    0.689837
     14          1           0       -1.213777   -1.829088    1.675140
     15          6           0       -2.189282    0.799566    1.119715
     16          1           0       -2.256156    0.234045    2.045132
     17          1           0       -2.240298    1.881304    1.204205
     18          1           0       -1.519486   -3.209593    0.483850
     19          6           0       -2.079834    0.987693   -1.365891
     20          1           0       -2.146681    2.062778   -1.179234
     21          1           0       -1.167553    0.798471   -1.944386
     22          1           0       -2.927700    0.695354   -2.000156
 ---------------------------------------------------------------------

 SCF Done:  E(RB3LYP) =  -574.598381063     A.U. after    1 cycles

 The electronic state is 1-A.
 Alpha  occ. eigenvalues --  -19.22146 -19.17289 -19.17283 -10.34764 -10.34743
 Alpha  occ. eigenvalues --  -10.25033 -10.24939 -10.20431 -10.19869 -10.19150
 Alpha  occ. eigenvalues --  -10.18278 -10.17997  -1.14505  -1.08238  -1.04426
 Alpha  occ. eigenvalues --   -0.85040  -0.81999  -0.74410  -0.70271  -0.68606
 Alpha  occ. eigenvalues --   -0.63556  -0.60997  -0.59885  -0.52188  -0.51706
 Alpha  occ. eigenvalues --   -0.50147  -0.48124  -0.47925  -0.46496  -0.45330
 Alpha  occ. eigenvalues --   -0.44522  -0.42276  -0.41826  -0.41524  -0.40928
 Alpha  occ. eigenvalues --   -0.38289  -0.36164  -0.34629  -0.34042  -0.32437
 Alpha  occ. eigenvalues --   -0.31999  -0.30287  -0.29238  -0.23392
 Alpha virt. eigenvalues --   -0.10863  -0.03017   0.03039   0.05387   0.07490
 Alpha virt. eigenvalues --    0.09174   0.10423   0.12015   0.12740   0.12947
 Alpha virt. eigenvalues --    0.13938   0.15608   0.18616   0.18924   0.19202

 Mulliken charges:
               1
     1  C   -0.161999
     2  C   -0.154129
     3  H    0.187315
     4  H    0.187670
     5  C    0.619669
     6  O   -0.421438
     7  C    0.629194
     8  O   -0.431393
     9  O   -0.471777
    10  C    0.189734
    11  C   -0.103438
    12  H    0.135685
    13  C   -0.343191
    14  H    0.135289
    15  C   -0.404517
    16  H    0.136705
    17  H    0.148181
    18  H    0.151088
    19  C   -0.525839
    20  H    0.163199
    21  H    0.178377
    22  H    0.155614
 Sum of Mulliken charges =  -0.00000

 Dipole moment (field-independent basis, Debye):
    X=             -0.2274    Y=             -0.9814    Z=              3.3751  Tot=              3.5222
 Quadrupole moment (field-independent basis, Debye-Ang):
   XX=            -69.7823   YY=            -75.5570   ZZ=            -66.0400
   XY=              0.3417   XZ=              8.3147   YZ=             -1.9250

  Exact polarizability:      69.533     -13.426     123.311       3.093       5.507      96.036
 Approx polarizability:      93.927     -32.705     226.559       1.557      22.139     156.022

                      1                      2                      3
                      A                      A                      A
 Frequencies --     18.8535                35.8362                44.1688
 Red. masses --      4.4682                 4.2183                 4.7875
 Frc consts  --      0.0009                 0.0032                 0.0055
 IR Inten    --      1.0553                 0.2135                13.5781

                      4                      5                      6
                      A                      A                      A
 Frequencies --     46.7460                54.6965                74.3916
 Red. masses --      4.7613                 6.9733                 3.2077
 Frc consts  --      0.0061                 0.0123                 0.0105
 IR Inten    --      0.0822                 0.1350                 2.4566

                      7                      8                      9
                      A                      A                      A
 Frequencies --    104.6497               172.9975               177.7416
 Red. masses --      2.0797                 5.3114                 1.1981
 Frc consts  --      0.0134                 0.0937                 0.0223
 IR Inten    --      0.1819                 4.9544                 0.1016

                     10                     11                     12
                      A                      A                      A
 Frequencies --    270.7110               279.5320               390.8223
 Red. masses --      4.1661                 2.5341                 2.0865
 Frc consts  --      0.1799                 0.1167                 0.1878
 IR Inten    --      0.1171                 0.1912                 3.7197

                     13                     14                     15
                      A                      A                      A
 Frequencies --    399.4796               414.6311               532.7028
 Red. masses --     12.7468                 2.1054                 2.3864
 Frc consts  --      1.1985                 0.2133                 0.3990
 IR Inten    --      8.8387                 4.3876                 3.7205

                     16                     17                     18
                      A                      A                      A
 Frequencies --    559.1236               634.2666               639.5073
 Red. masses --      4.7824                 8.4757                 2.6010
 Frc consts  --      0.8809                 2.0089                 0.6267
 IR Inten    --      2.0398                 0.3448                 5.3134

                     19                     20                     21
                      A                      A                      A
 Frequencies --    657.7984               702.2549               759.7988
 Red. masses --      1.2292                 8.7814                 4.9113
 Frc consts  --      0.3134                 2.5516                 1.6705
 IR Inten    --      0.3671                31.0762                 0.2765

                     22                     23                     24
                      A                      A                      A
 Frequencies --    764.0939               805.5580               847.3715
 Red. masses --      1.5460                 2.6792                 1.8865
 Frc consts  --      0.5318                 1.0244                 0.7981
 IR Inten    --      1.2674                 0.2804                83.6306

                     25                     26                     27
                      A                      A                      A
 Frequencies --    878.2547               907.9308               917.2586
 Red. masses --      9.3967                 8.7201                 1.3688
 Frc consts  --      4.2704                 4.2352                 0.6785
 IR Inten    --      6.8621                99.4222                42.5801

                     28                     29                     30
                      A                      A                      A
 Frequencies --    931.4694               970.4038               970.7906
 Red. masses --      1.3740                 1.3125                 1.6833
 Frc consts  --      0.7024                 0.7282                 0.9347
 IR Inten    --     48.6291                 0.4778                 0.2416

                     31                     32                     33
                      A                      A                      A
 Frequencies --   1032.1951              1040.4358              1066.3383
 Red. masses --      1.2531                 1.1724                 3.1744
 Frc consts  --      0.7866                 0.7478                 2.1267
 IR Inten    --      4.5273                13.1950                37.5144

                     34                     35                     36
                      A                      A                      A
 Frequencies --   1084.7734              1086.0606              1111.5720
 Red. masses --      1.3448                 1.2504                 1.6001
 Frc consts  --      0.9324                 0.8690                 1.1649
 IR Inten    --      9.1658                11.6122                 3.9610

                     37                     38                     39
                      A                      A                      A
 Frequencies --   1271.9978              1278.4229              1342.6633
 Red. masses --      3.9639                 3.0948                 1.7750
 Frc consts  --      3.7787                 2.9801                 1.8854
 IR Inten    --     64.0614                60.6768                 2.0071

                     40                     41                     42
                      A                      A                      A
 Frequencies --   1350.8994              1441.6987              1462.9162
 Red. masses --      1.3576                 1.2014                 1.2462
 Frc consts  --      1.4597                 1.4712                 1.5714
 IR Inten    --      0.2785                 2.2277                 5.6632

                     43                     44                     45
                      A                      A                      A
 Frequencies --   1479.4345              1507.7957              1525.6997
 Red. masses --      1.2772                 1.0467                 1.0590
 Frc consts  --      1.6470                 1.4021                 1.4524
 IR Inten    --      4.9124                 9.2231                 9.6597

                     46                     47                     48
                      A                      A                      A
 Frequencies --   1661.9196              1684.5747              1719.8021
 Red. masses --      6.5853                 4.3464                 4.1522
 Frc consts  --     10.7164                 7.2671                 7.2357
 IR Inten    --      3.3332                10.4764                 1.9891

                     49                     50                     51
                      A                      A                      A
 Frequencies --   1865.5522              1927.1853              3040.4952
 Red. masses --     12.8241                12.5972                 1.0408
 Frc consts  --     26.2961                27.5658                 5.6692
 IR Inten    --    484.3741                58.1012                18.7897

                     52                     53                     54
                      A                      A                      A
 Frequencies --   3095.5666              3140.9513              3149.2557
 Red. masses --      1.0972                 1.1003                 1.0846
 Frc consts  --      6.1948                 6.3954                 6.3375
 IR Inten    --     15.4187                10.1310                19.4188

                     55                     56                     57
                      A                      A                      A
 Frequencies --   3165.1108              3168.3924              3244.8204
 Red. masses --      1.0609                 1.0614                 1.1161
 Frc consts  --      6.2621                 6.2780                 6.9235
 IR Inten    --      2.3621                 5.7435                14.6161

                     58                     59                     60
                      A                      A                      A
 Frequencies --   3247.9292              3264.5911              3284.4395
 Red. masses --      1.1161                 1.0894                 1.1085
 Frc consts  --      6.9367                 6.8406                 7.0455
 IR Inten    --      8.2722                 0.1657                 0.3545

 - Thermochemistry -
 -------------------
 Temperature   298.150 Kelvin.  Pressure   1.00000 Atm.
 Atom     1 has atomic number  6 and mass  12.00000

 Molecular mass:   166.06299 amu.
 Principal axes and moments of inertia in atomic units:
                           1         2         3
     Eigenvalues --  1630.912892309.123822903.65487
           X            0.99954  -0.01384   0.02688
           Y            0.01476   0.99931  -0.03416
           Z           -0.02639   0.03455   0.99905
 This molecule is an asymmetric top.
 Rotational symmetry number  1.
 Warning -- assumption of classical behavior for rotation
           may cause significant error
 Rotational temperatures (Kelvin)      0.05311     0.03751     0.02983
 Rotational constants (GHZ):           1.10658     0.78157     0.62154
 Zero-point vibrational energy     446849.1 (Joules/Mol)
                                  106.79949 (Kcal/Mol)
 Warning -- explicit consideration of  16 degrees of freedom as
           vibrations may cause significant error
 Vibrational temperatures:     27.13    51.56    63.55    67.26    78.70
          (Kelvin)            107.03   150.57   248.90   255.73   389.49
                              402.18   562.31   574.76   596.56   766.44
                              804.45   912.57   920.11   946.43  1010.39
                             1093.18  1099.36  1159.02  1219.18  1263.61
                             1306.31  1319.73  1340.18  1396.19  1396.75
                             1485.10  1496.96  1534.22  1560.75  1562.60
                             1599.30  1830.12  1839.37  1931.79  1943.64
                             2074.28  2104.81  2128.58  2169.38  2195.14
                             2391.13  2423.73  2474.41  2684.11  2772.79
                             4374.59  4453.83  4519.13  4531.08  4553.89
                             4558.61  4668.57  4673.05  4697.02  4725.58

 Zero-point correction=                           0.170196 (Hartree/Particle)
 Thermal correction to Energy=                    0.183620
 Thermal correction to Enthalpy=                  0.184564
 Thermal correction to Gibbs Free Energy=         0.126689
 Sum of electronic and zero-point Energies=           -574.428185
 Sum of electronic and thermal Energies=              -574.414761
 Sum of electronic and thermal Enthalpies=            -574.413817
 Sum of electronic and thermal Free Energies=         -574.471693

                     E (Thermal)             CV                S
                      KCal/Mol        Cal/Mol-Kelvin    Cal/Mol-Kelvin
 Total                  115.223             45.696            121.809
 Electronic               0.000              0.000              0.000
 Translational            0.889              2.981             41.230
 Rotational               0.889              2.981             30.770
 Vibrational            113.446             39.735             49.809
 Vibration     1          0.593              1.986              6.751
 Vibration     2          0.594              1.982              5.477
 Vibration     3          0.595              1.980              5.063
 Vibration     4          0.595              1.979              4.951
 Vibration     5          0.596              1.976              4.640
 Vibration     6          0.599              1.966              4.034
 Vibration     7          0.605              1.946              3.366
 Vibration     8          0.627              1.876              2.403
 Vibration     9          0.628              1.870              2.352
 Vibration    10          0.674              1.727              1.592
 Vibration    11          0.680              1.711              1.537
 Vibration    12          0.759              1.490              0.997
 Vibration    13          0.766              1.471              0.965
 Vibration    14          0.778              1.438              0.910
 Vibration    15          0.888              1.178              0.581
 Vibration    16          0.915              1.120              0.526

                           ! Non-Optimized Parameters !
 Normal termination of Gaussian 16 at Mon Mar 13 09:38:20 2023.
