 Gaussian 16, Revision C.01,
 Gaussian 16:  AS64L-G16RevC.01  3-Jul-2019

 -------------------------
 # opt freq b3lyp/6-31g(d)
 -------------------------

 -------------------
 Title Card Required
 -------------------
 Symbolic Z-matrix:
 Charge =  0 Multiplicity = 1

 SCF Done:  E(RB3LYP) =  -379.289482997     A.U. after   14 cycles
 SCF Done:  E(RB3LYP) =  -379.289381794     A.U. after   11 cycles
 SCF Done:  E(RB3LYP) =  -379.289532731     A.U. after   12 cycles
 SCF Done:  E(RB3LYP) =  -379.289535198     A.U. after    9 cycles
 Optimization completed.
    -- Stationary point found.
 Normal termination of Gaussian 16 at Mon Mar 13 09:38:29 2023.

 --------------------------------------------------------------------
 #N Geom=AllCheck Guess=TCheck SCRF=Check GenChk RB3LYP/6-31G(d) Freq
 --------------------------------------------------------------------

 Structure from the checkpoint file:  "DATS_dienophile.chk"
 -------------------
 Title Card Required
 -------------------
 Charge =  0 Multiplicity = 1

                         Standard orientation:
 ---------------------------------------------------------------------
 Center     Atomic      Atomic             Coordinates (Angstroms)
 Number     Number       Type             X           Y           Z
 ---------------------------------------------------------------------
      1          6           0        0.667844    1.258145   -0.000104
      2          6           0       -0.667847    1.258091   -0.000001
      3          1           0        1.360554    2.089623    0.000140
      4          1           0       -1.360562    2.089558   -0.000006
      5          6           0        1.132153   -0.158735    0.000318
      6          8           0        2.245735   -0.599767    0.000135
      7          6           0       -1.132056   -0.158840   -0.000449
      8          8           0       -2.245756   -0.599691    0.000413
      9          8           0       -0.000049   -0.971935   -0.000389
 ---------------------------------------------------------------------

 SCF Done:  E(RB3LYP) =  -379.289535198     A.U. after    1 cycles

 The electronic state is 1-A.
 Alpha  occ. eigenvalues --  -19.22786 -19.18061 -19.18057 -10.35455 -10.35452
 Alpha  occ. eigenvalues --  -10.25824 -10.25737  -1.15243  -1.08987  -1.05185
 Alpha  occ. eigenvalues --   -0.85817  -0.70975  -0.64283  -0.60603  -0.52412
 Alpha  occ. eigenvalues --   -0.50820  -0.48822  -0.47198  -0.45198  -0.42648
 Alpha  occ. eigenvalues --   -0.42005  -0.34698  -0.33138  -0.32674  -0.29930
 Alpha virt. eigenvalues --   -0.11715   0.02379   0.05106   0.08976   0.12218
 Alpha virt. eigenvalues --    0.14149   0.18409   0.21129   0.27816   0.29618
 Alpha virt. eigenvalues --    0.38957   0.39431   0.46758   0.48060   0.49206

 Mulliken charges:
               1
     1  C   -0.160772
     2  C   -0.160810
     3  H    0.192919
     4  H    0.192917
     5  C    0.612002
     6  O   -0.414294
     7  C    0.612053
     8  O   -0.414374
     9  O   -0.459640
 Sum of Mulliken charges =  -0.00000

 Dipole moment (field-independent basis, Debye):
    X=              0.0011    Y=              4.0719    Z=             -0.0006  Tot=              4.0719
 Quadrupole moment (field-independent basis, Debye-Ang):
   XX=            -46.9561   YY=            -35.6257   ZZ=            -36.7063
   XY=             -0.0003   XZ=              0.0028   YZ=              0.0004

  Exact polarizability:      71.246      -0.000      41.289      -0.004      -0.000      19.917
 Approx polarizability:     142.044      -0.001      59.987      -0.021      -0.001      29.983

                      1                      2                      3
                      A                      A                      A
 Frequencies --    168.3665               264.2707               399.8543
 Red. masses --     15.3921                 4.1699                12.9187
 Frc consts  --      0.2571                 0.1716                 1.2170
 IR Inten    --      3.0209                 0.0000                10.5879

                      4                      5                      6
                      A                      A                      A
 Frequencies --    558.3088               636.1075               639.8919
 Red. masses --      4.7702                10.6703                 2.4971
 Frc consts  --      0.8761                 2.5438                 0.6024
 IR Inten    --      2.3582                 0.5107                 0.7625

                      7                      8                      9
                      A                      A                      A
 Frequencies --    702.8921               762.3209               853.3870
 Red. masses --      8.8113                 8.2938                 1.8614
 Frc consts  --      2.5649                 2.8397                 0.7987
 IR Inten    --     34.9598                 0.0000                68.8541

                     10                     11                     12
                      A                      A                      A
 Frequencies --    876.9338               910.7292               977.3464
 Red. masses --      9.4380                 9.0849                 1.2861
 Frc consts  --      4.2763                 4.4397                 0.7238
 IR Inten    --      6.1232               113.1101                 0.0000

                     13                     14                     15
                      A                      A                      A
 Frequencies --   1065.3558              1086.1467              1277.5862
 Red. masses --      3.2507                 1.1624                 6.9371
 Frc consts  --      2.1738                 0.8079                 6.6713
 IR Inten    --     47.9966                22.2773               158.3499

                     16                     17                     18
                      A                      A                      A
 Frequencies --   1341.8906              1665.6797              1866.8945
 Red. masses --      1.7677                 6.6308                12.8609
 Frc consts  --      1.8754                10.8392                26.4096
 IR Inten    --      2.5892                 2.9246               557.7192

                     19                     20                     21
                      A                      A                      A
 Frequencies --   1928.7548              3263.2187              3282.9797
 Red. masses --     12.6082                 1.0895                 1.1088
 Frc consts  --     27.6348                 6.8355                 7.0408
 IR Inten    --     56.7955                 0.1184                 0.1660

 - Thermochemistry -
 -------------------
 Temperature   298.150 Kelvin.  Pressure   1.00000 Atm.
 Atom     1 has atomic number  6 and mass  12.00000

 Molecular mass:    98.00039 amu.
 Principal axes and moments of inertia in atomic units:
                           1         2         3
     Eigenvalues --   263.67329 737.539601001.21283
           X            1.00000   0.00000   0.00000
           Y           -0.00000   1.00000   0.00000
           Z           -0.00000  -0.00000   1.00000
 This molecule is an asymmetric top.
 Rotational symmetry number  1.
 Rotational temperatures (Kelvin)      0.32849     0.11744     0.08651
 Rotational constants (GHZ):           6.84461     2.44698     1.80256
 Zero-point vibrational energy     146715.5 (Joules/Mol)
                                   35.06585 (Kcal/Mol)
 Warning -- explicit consideration of   4 degrees of freedom as
           vibrations may cause significant error
 Vibrational temperatures:    242.24   380.23   575.30   803.28   915.22
          (Kelvin)            920.66  1011.31  1096.81  1227.83  1261.71
                             1310.34  1406.18  1532.81  1562.72  1838.16
                             1930.68  2396.54  2686.04  2775.05  4695.04
                             4723.48

 Zero-point correction=                           0.055881 (Hartree/Particle)
 Thermal correction to Energy=                    0.061064
 Thermal correction to Enthalpy=                  0.062008
 Thermal correction to Gibbs Free Energy=         0.026810
 Sum of electronic and zero-point Energies=           -379.233654
 Sum of electronic and thermal Energies=              -379.228471
 Sum of electronic and thermal Enthalpies=            -379.227527
 Sum of electronic and thermal Free Energies=         -379.262725

                     E (Thermal)             CV                S
                      KCal/Mol        Cal/Mol-Kelvin    Cal/Mol-Kelvin
 Total                   38.318             18.572             74.081
 Electronic               0.000              0.000              0.000
 Translational            0.889              2.981             39.658
 Rotational               0.889              2.981             26.768
 Vibrational             36.541             12.611              7.656
 Vibration     1          0.625              1.881              2.454
 Vibration     2          0.671              1.738              1.633
 Vibration     3          0.766              1.470              0.963
 Vibration     4          0.914              1.122              0.527

 Optimization completed.
    -- Stationary point found.
 Normal termination of Gaussian 16 at Mon Mar 13 09:38:35 2023.
