 Gaussian 16, Revision C.01,
 Gaussian 16:  AS64L-G16RevC.01  3-Jul-2019

 -------------------------
 # opt freq b3lyp/6-31g(d)
 -------------------------

 -------------------
 Title Card Required
 -------------------
 Symbolic Z-matrix:
 Charge =  0 Multiplicity = 1

 SCF Done:  E(RB3LYP) =  -195.300273436     A.U. after   13 cycles
 SCF Done:  E(RB3LYP) =  -195.301883686     A.U. after   12 cycles
 SCF Done:  E(RB3LYP) =  -195.305580092     A.U. after   13 cycles
 SCF Done:  E(RB3LYP) =  -195.308054101     A.U. after   13 cycles
 SCF Done:  E(RB3LYP) =  -195.310088007     A.U. after   12 cycles
 SCF Done:  E(RB3LYP) =  -195.310427427     A.U. after   11 cycles
 SCF Done:  E(RB3LYP) =  -195.310444262     A.U. after   11 cycles
 SCF Done:  E(RB3LYP) =  -195.310447832     A.U. after   10 cycles
 Optimization completed.
    -- Stationary point found.
 Normal termination of Gaussian 16 at Tue Mar 14 12:46:39 2023.

 --------------------------------------------------------------------
 #N Geom=AllCheck Guess=TCheck SCRF=Check GenChk RB3LYP/6-31G(d) Freq
 --------------------------------------------------------------------

 Structure from the checkpoint file:  "DATS_diene.chk"
 -------------------
 Title Card Required
 -------------------
 Charge =  0 Multiplicity = 1

                         Standard orientation:
 ---------------------------------------------------------------------
 Center     Atomic      Atomic             Coordinates (Angstroms)
 Number     Number       Type             X           Y           Z
 ---------------------------------------------------------------------
      1          6           0        0.515849   -0.100686   -0.000148
      2          6           0       -0.833864   -0.679101   -0.000161
      3          1           0       -0.871766   -1.768560    0.000393
      4          6           0       -1.986188    0.005270   -0.000071
      5          1           0       -2.019498    1.091200    0.000486
      6          6           0        1.588908   -0.910128    0.000009
      7          1           0        1.485225   -1.992458    0.000564
      8          1           0        2.602515   -0.519067   -0.000056
      9          1           0       -2.944306   -0.505884    0.000357
     10          6           0        0.660626    1.401916    0.000055
     11          1           0        1.713366    1.698320    0.001318
     12          1           0        0.182294    1.846293   -0.882035
     13          1           0        0.180185    1.846530    0.880866
 ---------------------------------------------------------------------

 SCF Done:  E(RB3LYP) =  -195.310447832     A.U. after    1 cycles

 The electronic state is 1-A.
 Alpha  occ. eigenvalues --  -10.19722 -10.18879 -10.18082 -10.18057 -10.17811
 Alpha  occ. eigenvalues --   -0.81526  -0.73600  -0.68710  -0.59736  -0.51909
 Alpha  occ. eigenvalues --   -0.47091  -0.45394  -0.41486  -0.39712  -0.38167
 Alpha  occ. eigenvalues --   -0.36730  -0.33589  -0.30192  -0.22612
 Alpha virt. eigenvalues --   -0.01913   0.08563   0.10455   0.12285   0.13798
 Alpha virt. eigenvalues --    0.15082   0.18391   0.18574   0.19370   0.21239
 Alpha virt. eigenvalues --    0.25410   0.33440   0.36068   0.39808   0.47843

 Mulliken charges:
               1
     1  C    0.233780
     2  C   -0.099971
     3  H    0.124210
     4  C   -0.354521
     5  H    0.140454
     6  C   -0.409382
     7  H    0.139559
     8  H    0.138044
     9  H    0.142730
    10  C   -0.528412
    11  H    0.152930
    12  H    0.160297
    13  H    0.160282
 Sum of Mulliken charges =  -0.00000

 Dipole moment (field-independent basis, Debye):
    X=              0.0281    Y=              0.2323    Z=              0.0012  Tot=              0.2340
 Quadrupole moment (field-independent basis, Debye-Ang):
   XX=            -29.8054   YY=            -29.4031   ZZ=            -34.2019
   XY=              0.1698   XZ=             -0.0015   YZ=             -0.0010

  Exact polarizability:      80.787     -11.193      56.032       0.000      -0.004      25.362
 Approx polarizability:     129.301     -30.182      80.462       0.004      -0.005      35.791

                      1                      2                      3
                      A                      A                      A
 Frequencies --    163.8816               207.3401               279.4175
 Red. masses --      2.1562                 1.0392                 2.5832
 Frc consts  --      0.0341                 0.0263                 0.1188
 IR Inten    --      0.0118                 0.3790                 0.9047

                      4                      5                      6
                      A                      A                      A
 Frequencies --    407.9635               426.8269               535.7883
 Red. masses --      1.7152                 2.1796                 2.6375
 Frc consts  --      0.1682                 0.2340                 0.4461
 IR Inten    --      5.4713                 1.6141                 0.1391

                      7                      8                      9
                      A                      A                      A
 Frequencies --    645.9253               789.8874               797.5734
 Red. masses --      1.1977                 1.3604                 3.1281
 Frc consts  --      0.2944                 0.5001                 1.1724
 IR Inten    --      0.0240                 0.3932                 0.1387

                     10                     11                     12
                      A                      A                      A
 Frequencies --    922.5818               927.6638               971.8013
 Red. masses --      1.3533                 1.3564                 1.6793
 Frc consts  --      0.6787                 0.6877                 0.9344
 IR Inten    --     66.0184                13.4564                 0.5954

                     13                     14                     15
                      A                      A                      A
 Frequencies --   1022.7557              1036.1206              1086.8668
 Red. masses --      1.2594                 1.1389                 1.4820
 Frc consts  --      0.7762                 0.7204                 1.0315
 IR Inten    --      0.2082                14.3636                 0.4353

                     16                     17                     18
                      A                      A                      A
 Frequencies --   1101.5765              1341.4771              1345.1860
 Red. masses --      1.4825                 1.2501                 2.8309
 Frc consts  --      1.0600                 1.3254                 3.0181
 IR Inten    --      4.1637                 0.2011                 1.5098

                     19                     20                     21
                      A                      A                      A
 Frequencies --   1438.1523              1452.9334              1484.6142
 Red. masses --      1.2374                 1.3802                 1.1973
 Frc consts  --      1.5079                 1.7166                 1.5548
 IR Inten    --      3.9447                 1.8015                 0.8337

                     22                     23                     24
                      A                      A                      A
 Frequencies --   1510.7852              1531.8229              1683.5792
 Red. masses --      1.0445                 1.0652                 3.7337
 Frc consts  --      1.4046                 1.4726                 6.2353
 IR Inten    --      6.7899                 6.1475                17.5775

                     25                     26                     27
                      A                      A                      A
 Frequencies --   1723.1772              3042.1019              3092.2701
 Red. masses --      4.5812                 1.0379                 1.1002
 Frc consts  --      8.0147                 5.6591                 6.1984
 IR Inten    --      1.7562                20.0021                21.6547

                     28                     29                     30
                      A                      A                      A
 Frequencies --   3132.9080              3151.5868              3162.8496
 Red. masses --      1.1004                 1.0835                 1.0606
 Frc consts  --      6.3637                 6.3409                 6.2514
 IR Inten    --     18.9121                12.5669                11.2637

                     31                     32                     33
                      A                      A                      A
 Frequencies --   3173.4299              3241.3204              3249.5686
 Red. masses --      1.0644                 1.1160                 1.1159
 Frc consts  --      6.3155                 6.9083                 6.9426
 IR Inten    --      4.1742                14.9053                18.4075

 - Thermochemistry -
 -------------------
 Temperature   298.150 Kelvin.  Pressure   1.00000 Atm.
 Atom     1 has atomic number  6 and mass  12.00000

 Molecular mass:    68.06260 amu.
 Principal axes and moments of inertia in atomic units:
                           1         2         3
     Eigenvalues --   212.00071 434.45878 635.27440
           X            1.00000   0.00167  -0.00001
           Y           -0.00167   1.00000  -0.00002
           Z            0.00001   0.00002   1.00000
 This molecule is an asymmetric top.
 Rotational symmetry number  1.
 Rotational temperatures (Kelvin)      0.40855     0.19936     0.13634
 Rotational constants (GHZ):           8.51290     4.15400     2.84088
 Zero-point vibrational energy     299555.3 (Joules/Mol)
                                   71.59543 (Kcal/Mol)
 Warning -- explicit consideration of   6 degrees of freedom as
           vibrations may cause significant error
 Vibrational temperatures:    235.79   298.32   402.02   586.97   614.11
          (Kelvin)            770.88   929.34  1136.47  1147.53  1327.39
                             1334.70  1398.21  1471.52  1490.75  1563.76
                             1584.92  1930.09  1935.42  2069.18  2090.45
                             2136.03  2173.68  2203.95  2422.29  2479.27
                             4376.91  4449.09  4507.56  4534.43  4550.64
                             4565.86  4663.54  4675.40

 Zero-point correction=                           0.114095 (Hartree/Particle)
 Thermal correction to Energy=                    0.119930
 Thermal correction to Enthalpy=                  0.120874
 Thermal correction to Gibbs Free Energy=         0.085618
 Sum of electronic and zero-point Energies=           -195.196353
 Sum of electronic and thermal Energies=              -195.190518
 Sum of electronic and thermal Enthalpies=            -195.189574
 Sum of electronic and thermal Free Energies=         -195.224830

                     E (Thermal)             CV                S
                      KCal/Mol        Cal/Mol-Kelvin    Cal/Mol-Kelvin
 Total                   75.257             21.017             74.203
 Electronic               0.000              0.000              0.000
 Translational            0.889              2.981             38.571
 Rotational               0.889              2.981             25.573
 Vibrational             73.480             15.056             10.059
 Vibration     1          0.623              1.887              2.505
 Vibration     2          0.641              1.829              2.067
 Vibration     3          0.680              1.712              1.537
 Vibration     4          0.773              1.453              0.934
 Vibration     5          0.788              1.412              0.869
 Vibration     6          0.891              1.171              0.574

                           ! Non-Optimized Parameters !
 Normal termination of Gaussian 16 at Tue Mar 14 12:46:45 2023.
