 Gaussian 16, Revision C.01,
 Gaussian 16:  AS64L-G16RevC.01  3-Jul-2019

 ---------------------------------
 # opt=verytight b3lyp/6-31G* freq
 ---------------------------------

 -------------------
 Title Card Required
 -------------------
 Symbolic Z-matrix:
 Charge =  0 Multiplicity = 1

 SCF Done:  E(RB3LYP) =  -393.087097469     A.U. after   12 cycles
 SCF Done:  E(RB3LYP) =  -393.120341273     A.U. after   11 cycles
 SCF Done:  E(RB3LYP) =  -393.127017033     A.U. after   11 cycles
 SCF Done:  E(RB3LYP) =  -393.128302537     A.U. after   10 cycles
 SCF Done:  E(RB3LYP) =  -393.128901692     A.U. after   10 cycles
 SCF Done:  E(RB3LYP) =  -393.129033519     A.U. after    9 cycles
 SCF Done:  E(RB3LYP) =  -393.129060850     A.U. after    8 cycles
 SCF Done:  E(RB3LYP) =  -393.129067269     A.U. after    8 cycles
 SCF Done:  E(RB3LYP) =  -393.129068907     A.U. after    7 cycles
 SCF Done:  E(RB3LYP) =  -393.129069139     A.U. after    6 cycles
 SCF Done:  E(RB3LYP) =  -393.129069153     A.U. after    5 cycles
 SCF Done:  E(RB3LYP) =  -393.129069155     A.U. after    4 cycles
 SCF Done:  E(RB3LYP) =  -393.129069155     A.U. after    3 cycles
 SCF Done:  E(RB3LYP) =  -393.129069155     A.U. after    2 cycles
 Optimization completed.
    -- Stationary point found.
 Normal termination of Gaussian 16 at Tue Mar 14 10:29:09 2023.

 --------------------------------------------------------------------
 #N Geom=AllCheck Guess=TCheck SCRF=Check GenChk RB3LYP/6-31G(d) Freq
 --------------------------------------------------------------------

 Structure from the checkpoint file:  "tetramethylcyclohexane.chk"
 -------------------
 Title Card Required
 -------------------
 Charge =  0 Multiplicity = 1

                         Standard orientation:
 ---------------------------------------------------------------------
 Center     Atomic      Atomic             Coordinates (Angstroms)
 Number     Number       Type             X           Y           Z
 ---------------------------------------------------------------------
      1          6           0        1.338148   -0.261249   -0.048371
      2          6           0        0.000000   -0.951313   -0.437968
      3          6           0       -1.338148   -0.261249   -0.048372
      4          6           0       -1.265719    1.238870   -0.425436
      5          6           0       -0.000000    1.940203    0.087444
      6          6           0        1.265718    1.238870   -0.425436
      7          1           0        0.000000   -1.039033   -1.534567
      8          1           0        0.000000   -1.982998   -0.056489
      9          1           0       -1.287401    1.325191   -1.522422
     10          1           0       -2.164727    1.753307   -0.058556
     11          1           0       -0.000000    2.986851   -0.243419
     12          1           0       -0.000000    1.971820    1.184895
     13          1           0        1.287401    1.325191   -1.522421
     14          1           0        2.164727    1.753307   -0.058555
     15          6           0        2.467518   -0.928359   -0.860242
     16          1           0        3.436345   -0.461532   -0.642431
     17          1           0        2.551134   -1.995849   -0.619575
     18          1           0        2.288850   -0.841675   -1.938956
     19          6           0        1.688392   -0.429649    1.445687
     20          1           0        1.653190   -1.485919    1.739602
     21          1           0        2.705722   -0.066178    1.638102
     22          1           0        1.018151    0.119995    2.110777
     23          6           0       -1.688392   -0.429649    1.445686
     24          1           0       -2.705722   -0.066179    1.638101
     25          1           0       -1.653189   -1.485919    1.739602
     26          1           0       -1.018152    0.119998    2.110777
     27          6           0       -2.467518   -0.928360   -0.860242
     28          1           0       -2.551132   -1.995851   -0.619576
     29          1           0       -3.436345   -0.461535   -0.642429
     30          1           0       -2.288851   -0.841674   -1.938956
 ---------------------------------------------------------------------

 SCF Done:  E(RB3LYP) =  -393.129069155     A.U. after    1 cycles

 The electronic state is 1-A.
 Alpha  occ. eigenvalues --  -10.18936 -10.18935 -10.17349 -10.17164 -10.17162
 Alpha  occ. eigenvalues --  -10.17026 -10.16674 -10.16674 -10.16640 -10.16639
 Alpha  occ. eigenvalues --   -0.83805  -0.78791  -0.75072  -0.68349  -0.67155
 Alpha  occ. eigenvalues --   -0.66896  -0.66499  -0.59210  -0.54402  -0.50947
 Alpha  occ. eigenvalues --   -0.46549  -0.44662  -0.44321  -0.43319  -0.42606
 Alpha  occ. eigenvalues --   -0.40768  -0.40348  -0.38709  -0.37558  -0.37361
 Alpha  occ. eigenvalues --   -0.35868  -0.35753  -0.35072  -0.33489  -0.32580
 Alpha  occ. eigenvalues --   -0.32402  -0.31560  -0.30029  -0.28381  -0.28262
 Alpha virt. eigenvalues --    0.07065   0.10723   0.10763   0.12057   0.12817
 Alpha virt. eigenvalues --    0.13160   0.14701   0.15886   0.16255   0.16882
 Alpha virt. eigenvalues --    0.17264   0.17843   0.18246   0.18829   0.19769

 Mulliken charges:
               1
     1  C    0.101637
     2  C   -0.264754
     3  C    0.101637
     4  C   -0.256474
     5  C   -0.271313
     6  C   -0.256474
     7  H    0.119589
     8  H    0.119383
     9  H    0.121775
    10  H    0.123656
    11  H    0.129599
    12  H    0.130479
    13  H    0.121775
    14  H    0.123656
    15  C   -0.445934
    16  H    0.135925
    17  H    0.136748
    18  H    0.136002
    19  C   -0.451660
    20  H    0.136746
    21  H    0.135335
    22  H    0.144752
    23  C   -0.451660
    24  H    0.135335
    25  H    0.136746
    26  H    0.144752
    27  C   -0.445934
    28  H    0.136748
    29  H    0.135925
    30  H    0.136002
 Sum of Mulliken charges =  -0.00000

 Dipole moment (field-independent basis, Debye):
    X=              0.0000    Y=              0.0874    Z=             -0.0015  Tot=              0.0874
 Quadrupole moment (field-independent basis, Debye-Ang):
   XX=            -67.2584   YY=            -66.5026   ZZ=            -66.8460
   XY=             -0.0000   XZ=              0.0000   YZ=             -0.1635

  Exact polarizability:     112.057      -0.000      99.877       0.000      -0.581      95.377
 Approx polarizability:     143.292      -0.000     141.794       0.000      -0.707     141.987

                      1                      2                      3
                      A                      A                      A
 Frequencies --    127.9658               143.9331               190.6202
 Red. masses --      2.4664                 2.1017                 1.0570
 Frc consts  --      0.0238                 0.0257                 0.0226
 IR Inten    --      0.0035                 0.0133                 0.2534

                      4                      5                      6
                      A                      A                      A
 Frequencies --    242.1488               252.9881               258.0509
 Red. masses --      1.4881                 1.1806                 1.2709
 Frc consts  --      0.0514                 0.0445                 0.0499
 IR Inten    --      0.0034                 0.0236                 0.0068

                      7                      8                      9
                      A                      A                      A
 Frequencies --    282.0129               288.4203               303.7879
 Red. masses --      1.6865                 2.2166                 1.4528
 Frc consts  --      0.0790                 0.1086                 0.0790
 IR Inten    --      0.0088                 0.0172                 0.0075

                     10                     11                     12
                      A                      A                      A
 Frequencies --    312.4031               347.3711               393.1771
 Red. masses --      2.2457                 2.2684                 2.4243
 Frc consts  --      0.1291                 0.1613                 0.2208
 IR Inten    --      0.0790                 0.0055                 0.0352

                     13                     14                     15
                      A                      A                      A
 Frequencies --    403.1928               425.5459               460.1593
 Red. masses --      1.8020                 1.7376                 2.0974
 Frc consts  --      0.1726                 0.1854                 0.2617
 IR Inten    --      0.0624                 0.1184                 0.0810

                     16                     17                     18
                      A                      A                      A
 Frequencies --    468.7364               489.3379               568.0763
 Red. masses --      3.1643                 2.3964                 2.2370
 Frc consts  --      0.4096                 0.3381                 0.4253
 IR Inten    --      0.0037                 0.0320                 0.4142

                     19                     20                     21
                      A                      A                      A
 Frequencies --    712.2963               757.4682               840.1282
 Red. masses --      2.6667                 2.9631                 2.0762
 Frc consts  --      0.7972                 1.0017                 0.8634
 IR Inten    --      0.6945                 0.1722                 0.1049

                     22                     23                     24
                      A                      A                      A
 Frequencies --    875.7176               885.7899               906.1844
 Red. masses --      1.4908                 2.1537                 2.2096
 Frc consts  --      0.6736                 0.9956                 1.0690
 IR Inten    --      2.2388                 0.1607                 0.2383

                     25                     26                     27
                      A                      A                      A
 Frequencies --    920.8178               948.6075               955.4699
 Red. masses --      2.1205                 1.5584                 1.4869
 Frc consts  --      1.0594                 0.8262                 0.7998
 IR Inten    --      0.1017                 1.0471                 0.9723

                     28                     29                     30
                      A                      A                      A
 Frequencies --    983.1838               983.5283               989.3126
 Red. masses --      1.6471                 1.7640                 1.4911
 Frc consts  --      0.9381                 1.0053                 0.8598
 IR Inten    --      0.8972                 1.4001                 3.4230

                     31                     32                     33
                      A                      A                      A
 Frequencies --   1029.6884              1046.1774              1072.8779
 Red. masses --      1.2732                 1.7061                 1.8824
 Frc consts  --      0.7953                 1.1002                 1.2766
 IR Inten    --      0.0031                 0.3951                 0.0992

                     34                     35                     36
                      A                      A                      A
 Frequencies --   1082.6444              1092.7205              1146.9994
 Red. masses --      1.5590                 1.5887                 1.4284
 Frc consts  --      1.0766                 1.1177                 1.1072
 IR Inten    --      1.0136                 0.0617                 1.1397

                     37                     38                     39
                      A                      A                      A
 Frequencies --   1183.8616              1227.3589              1237.9084
 Red. masses --      1.6074                 2.5782                 1.4108
 Frc consts  --      1.3273                 2.2883                 1.2738
 IR Inten    --      6.4067                 1.4163                 0.3997

                     40                     41                     42
                      A                      A                      A
 Frequencies --   1246.7473              1284.7554              1295.7261
 Red. masses --      2.3983                 2.9474                 1.8480
 Frc consts  --      2.1964                 2.8664                 1.8280
 IR Inten    --      3.7333                 4.9039                 2.4834

                     43                     44                     45
                      A                      A                      A
 Frequencies --   1344.1625              1350.6737              1377.2528
 Red. masses --      1.4391                 1.5376                 1.3063
 Frc consts  --      1.5320                 1.6527                 1.4598
 IR Inten    --      0.9574                 2.8290                 0.0511

                     46                     47                     48
                      A                      A                      A
 Frequencies --   1393.6698              1396.9344              1407.6573
 Red. masses --      1.5549                 1.4627                 1.3892
 Frc consts  --      1.7794                 1.6817                 1.6219
 IR Inten    --      0.1006                 0.7771                 1.1566

                     49                     50                     51
                      A                      A                      A
 Frequencies --   1426.0039              1430.2672              1450.8338
 Red. masses --      1.2543                 1.2357                 1.2180
 Frc consts  --      1.5027                 1.4893                 1.5106
 IR Inten    --      0.0006                 9.2376                 4.1902

                     52                     53                     54
                      A                      A                      A
 Frequencies --   1452.0398              1503.9228              1506.3719
 Red. masses --      1.2380                 1.0824                 1.0758
 Frc consts  --      1.5379                 1.4425                 1.4383
 IR Inten    --      5.8146                 1.0696                 0.4858

                     55                     56                     57
                      A                      A                      A
 Frequencies --   1511.4473              1513.5225              1520.8352
 Red. masses --      1.0721                 1.0457                 1.0706
 Frc consts  --      1.4430                 1.4114                 1.4589
 IR Inten    --      0.3803                 0.8511                 0.5968

                     58                     59                     60
                      A                      A                      A
 Frequencies --   1522.0039              1528.2432              1532.0851
 Red. masses --      1.0491                 1.0622                 1.0582
 Frc consts  --      1.4318                 1.4616                 1.4634
 IR Inten    --      1.9573                 6.8727                 5.3882

                     61                     62                     63
                      A                      A                      A
 Frequencies --   1534.2754              1538.0728              1542.2453
 Red. masses --      1.0853                 1.0572                 1.0646
 Frc consts  --      1.5052                 1.4736                 1.4920
 IR Inten    --      6.4672                 4.0708                 3.9288

                     64                     65                     66
                      A                      A                      A
 Frequencies --   1552.9590              3008.6761              3012.6147
 Red. masses --      1.0549                 1.0602                 1.0624
 Frc consts  --      1.4989                 5.6544                 5.6808
 IR Inten    --      9.0930                23.7858                15.3872

                     67                     68                     69
                      A                      A                      A
 Frequencies --   3016.1906              3032.5856              3033.7744
 Red. masses --      1.0612                 1.0352                 1.0369
 Frc consts  --      5.6883                 5.6093                 5.6228
 IR Inten    --     36.2900                28.2670                48.6674

                     70                     71                     72
                      A                      A                      A
 Frequencies --   3037.3051              3044.0674              3046.4413
 Red. masses --      1.0673                 1.0402                 1.0929
 Frc consts  --      5.8013                 5.6791                 5.9758
 IR Inten    --     13.1136                30.4851                 8.6920

                     73                     74                     75
                      A                      A                      A
 Frequencies --   3047.6088              3054.3703              3059.5284
 Red. masses --      1.0536                 1.0992                 1.0882
 Frc consts  --      5.7657                 6.0417                 6.0017
 IR Inten    --     40.8425                47.0197                48.2384

                     76                     77                     78
                      A                      A                      A
 Frequencies --   3075.3504              3095.3492              3096.1680
 Red. masses --      1.1038                 1.1023                 1.1022
 Frc consts  --      6.1508                 6.2226                 6.2251
 IR Inten    --     57.5455                 0.3691                 3.2336

                     79                     80                     81
                      A                      A                      A
 Frequencies --   3100.9480              3102.9378              3102.9697
 Red. masses --      1.1018                 1.1019                 1.1015
 Frc consts  --      6.2424                 6.2510                 6.2485
 IR Inten    --      9.9040                60.9583               108.4325

                     82                     83                     84
                      A                      A                      A
 Frequencies --   3104.0368              3132.5119              3151.6223
 Red. masses --      1.1013                 1.0980                 1.0932
 Frc consts  --      6.2519                 6.3480                 6.3978
 IR Inten    --     55.8345                36.8665                34.9435

 - Thermochemistry -
 -------------------
 Temperature   298.150 Kelvin.  Pressure   1.00000 Atm.
 Atom     1 has atomic number  6 and mass  12.00000

 Molecular mass:   140.15650 amu.
 Principal axes and moments of inertia in atomic units:
                           1         2         3
     Eigenvalues --   980.584341755.163991929.34999
           X            1.00000   0.00000  -0.00000
           Y           -0.00000   0.99994   0.01054
           Z            0.00000  -0.01054   0.99994
 This molecule is an asymmetric top.
 Rotational symmetry number  1.
 Warning -- assumption of classical behavior for rotation
           may cause significant error
 Rotational temperatures (Kelvin)      0.08833     0.04935     0.04489
 Rotational constants (GHZ):           1.84048     1.02825     0.93541
 Zero-point vibrational energy     743804.7 (Joules/Mol)
                                  177.77359 (Kcal/Mol)
 Warning -- explicit consideration of  18 degrees of freedom as
           vibrations may cause significant error
 Vibrational temperatures:    184.11   207.09   274.26   348.40   363.99
          (Kelvin)            371.28   405.75   414.97   437.08   449.48
                              499.79   565.69   580.10   612.27   662.07
                              674.41   704.05   817.34  1024.84  1089.83
                             1208.76  1259.96  1274.45  1303.80  1324.85
                             1364.83  1374.71  1414.58  1415.08  1423.40
                             1481.49  1505.22  1543.63  1557.68  1572.18
                             1650.28  1703.31  1765.90  1781.07  1793.79
                             1848.48  1864.26  1933.95  1943.32  1981.56
                             2005.18  2009.88  2025.30  2051.70  2057.84
                             2087.43  2089.16  2163.81  2167.33  2174.64
                             2177.62  2188.14  2189.82  2198.80  2204.33
                             2207.48  2212.94  2218.95  2234.36  4328.81
                             4334.48  4339.63  4363.21  4364.92  4370.00
                             4379.73  4383.15  4384.83  4394.56  4401.98
                             4424.74  4453.52  4454.70  4461.57  4464.44
                             4464.48  4466.02  4506.99  4534.48

 Zero-point correction=                           0.283300 (Hartree/Particle)
 Thermal correction to Energy=                    0.294452
 Thermal correction to Enthalpy=                  0.295396
 Thermal correction to Gibbs Free Energy=         0.248547
 Sum of electronic and zero-point Energies=           -392.845769
 Sum of electronic and thermal Energies=              -392.834617
 Sum of electronic and thermal Enthalpies=            -392.833673
 Sum of electronic and thermal Free Energies=         -392.880523

                     E (Thermal)             CV                S
                      KCal/Mol        Cal/Mol-Kelvin    Cal/Mol-Kelvin
 Total                  184.771             45.556             98.603
 Electronic               0.000              0.000              0.000
 Translational            0.889              2.981             40.724
 Rotational               0.889              2.981             29.586
 Vibrational            182.994             39.594             28.293
 Vibration     1          0.611              1.925              2.976
 Vibration     2          0.616              1.909              2.751
 Vibration     3          0.634              1.853              2.222
 Vibration     4          0.658              1.776              1.787
 Vibration     5          0.664              1.758              1.710
 Vibration     6          0.667              1.749              1.675
 Vibration     7          0.681              1.707              1.521
 Vibration     8          0.685              1.695              1.483
 Vibration     9          0.695              1.667              1.396
 Vibration    10          0.701              1.650              1.350
 Vibration    11          0.725              1.581              1.178
 Vibration    12          0.760              1.485              0.988
 Vibration    13          0.769              1.463              0.951
 Vibration    14          0.787              1.415              0.873
 Vibration    15          0.818              1.338              0.766
 Vibration    16          0.826              1.319              0.741
 Vibration    17          0.845              1.274              0.685
 Vibration    18          0.924              1.100              0.508

 Optimization completed.
    -- Stationary point found.
 Normal termination of Gaussian 16 at Tue Mar 14 10:30:41 2023.
